Written by MDAnalysis
    6
    0GSH   CAC1    1   3.645   3.831   2.114
    0GSH   AMC1    2   3.504   3.975   1.940
    0GSH   AMD1    3   3.649   3.827   1.579
    0GSH   SUL1    4   3.798   3.947   1.346
    0GSH   AMD2    5   3.801   3.526   1.537
    0GSH   CAC2    6   3.940   3.365   1.727
   4.91054   4.91054   3.47228   0.00000   0.00000   0.00000   0.00000   2.45527   2.45527
