; This file was generated using the following command:
; /coarse/chris/python_packages/fast_forward/.venv/bin/ff_inter -f mapped.xtc -s GSH.tpr -i GSH.itp -max-dihedral 5 -plots
; 

; Please cite the following papers:
; Brasnett, C; Grunewald, L; Wassenaar, T A; Marrink, S J; Grunewald, F;  2025; https://zenodo.org/badge/latestdoi/327071500
; Kroon, P C; Grunewald, F; Barnoud, J; van Tilburg, M; Souza, P C; Wassenaar, T A; Marrink, S J;  elife 2024; 10.7554/elife.90627.2

[ moleculetype ]
GSH 1

[ atoms ]
1 SQ5n 1 GSH CAC1 1 -1.0 
2 Q4p  1 GSH AMC1 2  1.0 
3 P2   1 GSH AMD1 3  0.0 
4 TC6  1 GSH SUL1 4  0.0 
5 P2   1 GSH AMD2 5  0.0 
6 SQ5n 1 GSH CAC2 6 -1.0 

[ bonds ]
1 2 1 0.265 6021.438 ; CAC1_AMC1
3 4 1 0.289 6157.672 ; AMD1_SUL1
3 5 1 0.359 9600.604 ; AMD1_AMD2
5 6 1 0.327 4354.745 ; AMD2_CAC2
2 3 1 0.384 10000 ; AMC1_AMD1

[ angles ]
1 2 3 2 10 10 ; CAC1_AMC1_AMD1
2 3 4 2 10 10 ; AMC1_AMD1_SUL1
2 3 5 2 10 10 ; AMC1_AMD1_AMD2
4 3 5 2 10 10 ; SUL1_AMD1_AMD2
3 5 6 2 10 10 ; AMD1_AMD2_CAC2

[ dihedrals ]
2 3 5 6 1 10 1 1 ; AMC1_AMD1_AMD2_CAC2
1 2 3 5 1 10 1 1 ; CAC1_AMC1_AMD1_AMD2
1 2 3 4 1 10 1 1 ; CAC1_AMC1_AMD1_SUL1
